 Gaussian 09, Revision C.01,
 Gaussian 09:  EM64L-G09RevC.01 23-Sep-2011

 ---------------------------------------------
 # B3LYP/6-31G(d) opt=tight scf=tight pop=full
 ---------------------------------------------

 99/9=1/99;
 --------------------------------------
 4-methylimidazole Geometry Optimisation
 --------------------------------------
 Charge =  0 Multiplicity = 1

 SCF Done:  E(RB3LYP) =  -264.597936220     A.U. after   26 cycles
 SCF Done:  E(RB3LYP) =  -264.671872605     A.U. after   19 cycles
 SCF Done:  E(RB3LYP) =  -264.782429328     A.U. after   19 cycles
 SCF Done:  E(RB3LYP) =  -264.914144826     A.U. after   20 cycles
 SCF Done:  E(RB3LYP) =  -264.805129808     A.U. after   21 cycles
 SCF Done:  E(RB3LYP) =  -264.954659781     A.U. after   19 cycles
 SCF Done:  E(RB3LYP) =  -265.048007599     A.U. after   18 cycles
 SCF Done:  E(RB3LYP) =  -265.146917767     A.U. after   16 cycles
 SCF Done:  E(RB3LYP) =  -265.283459036     A.U. after   17 cycles
 SCF Done:  E(RB3LYP) =  -265.412001315     A.U. after   16 cycles
 SCF Done:  E(RB3LYP) =  -265.534859733     A.U. after   12 cycles
 SCF Done:  E(RB3LYP) =  -265.535062176     A.U. after   12 cycles
 SCF Done:  E(RB3LYP) =  -265.535407848     A.U. after   12 cycles
 SCF Done:  E(RB3LYP) =  -265.535418851     A.U. after    9 cycles
 SCF Done:  E(RB3LYP) =  -265.535423076     A.U. after    9 cycles
 SCF Done:  E(RB3LYP) =  -265.535428919     A.U. after    8 cycles
 SCF Done:  E(RB3LYP) =  -265.535431331     A.U. after    8 cycles
 SCF Done:  E(RB3LYP) =  -265.535431666     A.U. after    8 cycles
 SCF Done:  E(RB3LYP) =  -265.535431857     A.U. after    7 cycles
 SCF Done:  E(RB3LYP) =  -265.535431859     A.U. after    6 cycles
 Optimization completed.
    -- Stationary point found.

                         Standard orientation:
 ---------------------------------------------------------------------
 Center     Atomic      Atomic             Coordinates (Angstroms)
 Number     Number       Type             X           Y           Z
 ---------------------------------------------------------------------
      1          6           0        1.150388   -0.101813    0.000000
      2          6           0        0.000000    0.651072    0.000000
      3          7           0        0.870758   -1.452335    0.000000
      4          1           0        2.170515    0.260143    0.000000
      5          6           0       -0.440396   -1.527701    0.000000
      6          7           0       -1.019351   -0.287000    0.000000
      7          1           0       -1.025298   -2.438191    0.000000
      8          6           0       -0.243526    2.124612    0.000000
      9          1           0        0.712543    2.655801    0.000000
     10          1           0       -0.803527    2.453856    0.885562
     11          1           0       -0.803527    2.453856   -0.885562
     12          1           0       -2.009357   -0.087140    0.000000
 ---------------------------------------------------------------------

 The electronic state is 1-A'.
 Alpha  occ. eigenvalues --  -14.38480 -14.30222 -10.23120 -10.21474 -10.19781
 Alpha  occ. eigenvalues --  -10.18592  -1.00385  -0.86141  -0.77036  -0.68743
 Alpha  occ. eigenvalues --   -0.60722  -0.58021  -0.52796  -0.44730  -0.44235
 Alpha  occ. eigenvalues --   -0.40945  -0.39753  -0.39722  -0.39252  -0.27111
 Alpha  occ. eigenvalues --   -0.25763  -0.21467
 Alpha virt. eigenvalues --    0.03435   0.07365   0.07980   0.11506   0.14035
 Alpha virt. eigenvalues --    0.14877   0.17640   0.17872   0.22364   0.23760
 Alpha virt. eigenvalues --    0.27416   0.31952   0.39251   0.43311   0.51361

 Mulliken atomic charges:
              1
     1  C   -0.078832
     2  C    0.326054
     3  N   -0.424229
     4  H    0.127191
     5  C    0.204217
     6  N   -0.596806
     7  H    0.150471
     8  C   -0.532099
     9  H    0.174723
    10  H    0.160870
    11  H    0.160870
    12  H    0.327572
 Sum of Mulliken atomic charges =   0.00000

 Dipole moment (field-independent basis, Debye):
    X=             -3.2166    Y=              2.2075    Z=              0.0000  Tot=              3.9012
 Quadrupole moment (field-independent basis, Debye-Ang):
   XX=            -31.0338   YY=            -35.5765   ZZ=            -37.2652
   XY=              4.6355   XZ=              0.0000   YZ=              0.0000

 Normal termination of Gaussian 09 at Tue Jul 16 13:25:07 2019.
